Program Version,EnergyPlus, Version 22.2.0-c249759bad, YMD=2024.07.03 23:58
1,5,Environment Title[],Latitude[deg],Longitude[deg],Time Zone[],Elevation[m]
2,8,Day of Simulation[],Month[],Day of Month[],DST Indicator[1=yes 0=no],Hour[],StartMinute[],EndMinute[],DayType
3,5,Cumulative Day of Simulation[],Month[],Day of Month[],DST Indicator[1=yes 0=no],DayType  ! When Daily Meters Requested
4,2,Cumulative Days of Simulation[],Month[]  ! When Monthly Meters Requested
5,1,Cumulative Days of Simulation[] ! When Run Period Meters Requested
6,1,Calendar Year of Simulation[] ! When Annual Meters Requested
10,1,Electricity:Facility [J] !TimeStep
12,7,Electricity:Facility [J] !Daily [Value,Min,Hour,Minute,Max,Hour,Minute]
End of Data Dictionary
1,MUMBAI-SHIVAJI.INTL.AP ANN CLG .4% CONDNS DB=>MWB,  48.72,   2.38,   1.00,  90.00
2,1, 5,21, 0, 1, 0.00,30.00,SummerDesignDay
10,45168611.426553994
2,1, 5,21, 0, 1,30.00,60.00,SummerDesignDay
10,45248892.418834396
2,1, 5,21, 0, 2, 0.00,30.00,SummerDesignDay
10,37077087.23417446
2,1, 5,21, 0, 2,30.00,60.00,SummerDesignDay
10,45344932.34032196
2,1, 5,21, 0, 3, 0.00,30.00,SummerDesignDay
10,45395757.67681692
2,1, 5,21, 0, 3,30.00,60.00,SummerDesignDay
10,37077087.23417446
2,1, 5,21, 0, 4, 0.00,30.00,SummerDesignDay
10,45479297.046917886
2,1, 5,21, 0, 4,30.00,60.00,SummerDesignDay
10,45515616.50868094
2,1, 5,21, 0, 5, 0.00,30.00,SummerDesignDay
10,37077087.23417446
2,1, 5,21, 0, 5,30.00,60.00,SummerDesignDay
10,45559870.70467134
2,1, 5,21, 0, 6, 0.00,30.00,SummerDesignDay
10,45542214.79363739
2,1, 5,21, 0, 6,30.00,60.00,SummerDesignDay
10,37077087.23417446
2,1, 5,21, 0, 7, 0.00,30.00,SummerDesignDay
10,45443198.22460961
2,1, 5,21, 0, 7,30.00,60.00,SummerDesignDay
10,45329051.4197848
2,1, 5,21, 0, 8, 0.00,30.00,SummerDesignDay
10,37077087.23417446
2,1, 5,21, 0, 8,30.00,60.00,SummerDesignDay
10,44759689.4027348
2,1, 5,21, 0, 9, 0.00,30.00,SummerDesignDay
10,44616739.122675434
2,1, 5,21, 0, 9,30.00,60.00,SummerDesignDay
10,37077087.23417446
2,1, 5,21, 0,10, 0.00,30.00,SummerDesignDay
10,44027454.028630815
2,1, 5,21, 0,10,30.00,60.00,SummerDesignDay
10,43894739.764487945
2,1, 5,21, 0,11, 0.00,30.00,SummerDesignDay
10,37077087.23417446
2,1, 5,21, 0,11,30.00,60.00,SummerDesignDay
10,43349826.54680048
2,1, 5,21, 0,12, 0.00,30.00,SummerDesignDay
10,43648629.92423832
2,1, 5,21, 0,12,30.00,60.00,SummerDesignDay
10,37077087.23417446
2,1, 5,21, 0,13, 0.00,30.00,SummerDesignDay
10,43351420.1723562
2,1, 5,21, 0,13,30.00,60.00,SummerDesignDay
10,43612071.07092307
2,1, 5,21, 0,14, 0.00,30.00,SummerDesignDay
10,37077087.23417446
2,1, 5,21, 0,14,30.00,60.00,SummerDesignDay
10,42969546.88799716
2,1, 5,21, 0,15, 0.00,30.00,SummerDesignDay
10,43403892.564031295
2,1, 5,21, 0,15,30.00,60.00,SummerDesignDay
10,37077087.23417446
2,1, 5,21, 0,16, 0.00,30.00,SummerDesignDay
10,43119763.9701046
2,1, 5,21, 0,16,30.00,60.00,SummerDesignDay
10,43411769.87817796
2,1, 5,21, 0,17, 0.00,30.00,SummerDesignDay
10,37077087.23417446
2,1, 5,21, 0,17,30.00,60.00,SummerDesignDay
10,43467587.41305594
2,1, 5,21, 0,18, 0.00,30.00,SummerDesignDay
10,43872785.15452868
2,1, 5,21, 0,18,30.00,60.00,SummerDesignDay
10,37077087.23417446
2,1, 5,21, 0,19, 0.00,30.00,SummerDesignDay
10,44034128.16150608
2,1, 5,21, 0,19,30.00,60.00,SummerDesignDay
10,44558560.991555125
2,1, 5,21, 0,20, 0.00,30.00,SummerDesignDay
10,37077087.23417446
2,1, 5,21, 0,20,30.00,60.00,SummerDesignDay
10,44645750.502755895
2,1, 5,21, 0,21, 0.00,30.00,SummerDesignDay
10,45050926.04966572
2,1, 5,21, 0,21,30.00,60.00,SummerDesignDay
10,37077087.23417446
2,1, 5,21, 0,22, 0.00,30.00,SummerDesignDay
10,44665017.939080715
2,1, 5,21, 0,22,30.00,60.00,SummerDesignDay
10,44922461.86479102
2,1, 5,21, 0,23, 0.00,30.00,SummerDesignDay
10,37077087.23417446
2,1, 5,21, 0,23,30.00,60.00,SummerDesignDay
10,44915741.007468596
2,1, 5,21, 0,24, 0.00,30.00,SummerDesignDay
10,44994249.596042655
2,1, 5,21, 0,24,30.00,60.00,SummerDesignDay
10,37077087.23417446
3,1, 5,21, 0,SummerDesignDay
12,2016553590.3212295,37077087.23417446, 2,30,45559870.70467134, 5,60
1,MUMBAI-SHIVAJI.INTL.AP ANN CLG .4% CONDNS DP=>MDB,  48.72,   2.38,   1.00,  90.00
2,1, 5,21, 0, 1, 0.00,30.00,SummerDesignDay
10,46151476.80057535
2,1, 5,21, 0, 1,30.00,60.00,SummerDesignDay
10,46206902.29885115
2,1, 5,21, 0, 2, 0.00,30.00,SummerDesignDay
10,37077087.23417446
2,1, 5,21, 0, 2,30.00,60.00,SummerDesignDay
10,46817105.42522748
2,1, 5,21, 0, 3, 0.00,30.00,SummerDesignDay
10,46539472.48930962
2,1, 5,21, 0, 3,30.00,60.00,SummerDesignDay
10,37077087.23417446
2,1, 5,21, 0, 4, 0.00,30.00,SummerDesignDay
10,46596125.42687946
2,1, 5,21, 0, 4,30.00,60.00,SummerDesignDay
10,46391083.36912288
2,1, 5,21, 0, 5, 0.00,30.00,SummerDesignDay
10,37077087.23417446
2,1, 5,21, 0, 5,30.00,60.00,SummerDesignDay
10,46662743.1166344
2,1, 5,21, 0, 6, 0.00,30.00,SummerDesignDay
10,46409453.6812156
2,1, 5,21, 0, 6,30.00,60.00,SummerDesignDay
10,37077087.23417446
2,1, 5,21, 0, 7, 0.00,30.00,SummerDesignDay
10,46558250.70513654
2,1, 5,21, 0, 7,30.00,60.00,SummerDesignDay
10,46517372.144756295
2,1, 5,21, 0, 8, 0.00,30.00,SummerDesignDay
10,37077087.23417446
2,1, 5,21, 0, 8,30.00,60.00,SummerDesignDay
10,48060781.199666075
2,1, 5,21, 0, 9, 0.00,30.00,SummerDesignDay
10,46072565.241294384
2,1, 5,21, 0, 9,30.00,60.00,SummerDesignDay
10,37077087.23417446
2,1, 5,21, 0,10, 0.00,30.00,SummerDesignDay
10,47432892.79521339
2,1, 5,21, 0,10,30.00,60.00,SummerDesignDay
10,45815901.82963184
2,1, 5,21, 0,11, 0.00,30.00,SummerDesignDay
10,37077087.23417446
2,1, 5,21, 0,11,30.00,60.00,SummerDesignDay
10,46828631.593990326
2,1, 5,21, 0,12, 0.00,30.00,SummerDesignDay
10,46423515.27288528
2,1, 5,21, 0,12,30.00,60.00,SummerDesignDay
10,37077087.23417446
2,1, 5,21, 0,13, 0.00,30.00,SummerDesignDay
10,46464402.13315471
2,1, 5,21, 0,13,30.00,60.00,SummerDesignDay
10,46335749.82008056
2,1, 5,21, 0,14, 0.00,30.00,SummerDesignDay
10,37077087.23417446
2,1, 5,21, 0,14,30.00,60.00,SummerDesignDay
10,46216499.504549965
2,1, 5,21, 0,15, 0.00,30.00,SummerDesignDay
10,46202019.91459364
2,1, 5,21, 0,15,30.00,60.00,SummerDesignDay
10,37077087.23417446
2,1, 5,21, 0,16, 0.00,30.00,SummerDesignDay
10,46285134.408294916
2,1, 5,21, 0,16,30.00,60.00,SummerDesignDay
10,46362454.757795654
2,1, 5,21, 0,17, 0.00,30.00,SummerDesignDay
10,37077087.23417446
2,1, 5,21, 0,17,30.00,60.00,SummerDesignDay
10,46560099.04617506
2,1, 5,21, 0,18, 0.00,30.00,SummerDesignDay
10,46708380.581889264
2,1, 5,21, 0,18,30.00,60.00,SummerDesignDay
10,37077087.23417446
2,1, 5,21, 0,19, 0.00,30.00,SummerDesignDay
10,47022681.48027076
2,1, 5,21, 0,19,30.00,60.00,SummerDesignDay
10,46992110.98714623
2,1, 5,21, 0,20, 0.00,30.00,SummerDesignDay
10,37077087.23417446
2,1, 5,21, 0,20,30.00,60.00,SummerDesignDay
10,47509995.8643121
2,1, 5,21, 0,21, 0.00,30.00,SummerDesignDay
10,46094858.10070441
2,1, 5,21, 0,21,30.00,60.00,SummerDesignDay
10,37077087.23417446
2,1, 5,21, 0,22, 0.00,30.00,SummerDesignDay
10,47861364.85436305
2,1, 5,21, 0,22,30.00,60.00,SummerDesignDay
10,46371365.33037366
2,1, 5,21, 0,23, 0.00,30.00,SummerDesignDay
10,37077087.23417446
2,1, 5,21, 0,23,30.00,60.00,SummerDesignDay
10,48192009.52360329
2,1, 5,21, 0,24, 0.00,30.00,SummerDesignDay
10,46345811.367920086
2,1, 5,21, 0,24,30.00,60.00,SummerDesignDay
10,37077087.23417446
3,1, 5,21, 0,SummerDesignDay
12,2086242606.812409,37077087.23417446, 2,30,48192009.52360329,23,60
1,MUMBAI-SHIVAJI.INTL.AP ANN CLG .4% CONDNS ENTH=>MDB,  48.72,   2.38,   1.00,  90.00
2,1, 5,21, 0, 1, 0.00,30.00,SummerDesignDay
10,45590965.25835931
2,1, 5,21, 0, 1,30.00,60.00,SummerDesignDay
10,45648984.57171679
2,1, 5,21, 0, 2, 0.00,30.00,SummerDesignDay
10,37077087.23417446
2,1, 5,21, 0, 2,30.00,60.00,SummerDesignDay
10,47832933.53067354
2,1, 5,21, 0, 3, 0.00,30.00,SummerDesignDay
10,46280194.69129065
2,1, 5,21, 0, 3,30.00,60.00,SummerDesignDay
10,37077087.23417446
2,1, 5,21, 0, 4, 0.00,30.00,SummerDesignDay
10,47945763.88558858
2,1, 5,21, 0, 4,30.00,60.00,SummerDesignDay
10,46141063.30929925
2,1, 5,21, 0, 5, 0.00,30.00,SummerDesignDay
10,37077087.23417446
2,1, 5,21, 0, 5,30.00,60.00,SummerDesignDay
10,47961411.99130063
2,1, 5,21, 0, 6, 0.00,30.00,SummerDesignDay
10,46160611.18057008
2,1, 5,21, 0, 6,30.00,60.00,SummerDesignDay
10,37077087.23417446
2,1, 5,21, 0, 7, 0.00,30.00,SummerDesignDay
10,47896340.992830165
2,1, 5,21, 0, 7,30.00,60.00,SummerDesignDay
10,46304347.59845064
2,1, 5,21, 0, 8, 0.00,30.00,SummerDesignDay
10,37077087.23417446
2,1, 5,21, 0, 8,30.00,60.00,SummerDesignDay
10,47382713.28076807
2,1, 5,21, 0, 9, 0.00,30.00,SummerDesignDay
10,45740925.92891404
2,1, 5,21, 0, 9,30.00,60.00,SummerDesignDay
10,37077087.23417446
2,1, 5,21, 0,10, 0.00,30.00,SummerDesignDay
10,46655703.670368984
2,1, 5,21, 0,10,30.00,60.00,SummerDesignDay
10,46415896.35682587
2,1, 5,21, 0,11, 0.00,30.00,SummerDesignDay
10,37077087.23417446
2,1, 5,21, 0,11,30.00,60.00,SummerDesignDay
10,45979693.42636952
2,1, 5,21, 0,12, 0.00,30.00,SummerDesignDay
10,45879733.05635374
2,1, 5,21, 0,12,30.00,60.00,SummerDesignDay
10,37077087.23417446
2,1, 5,21, 0,13, 0.00,30.00,SummerDesignDay
10,45592622.52230038
2,1, 5,21, 0,13,30.00,60.00,SummerDesignDay
10,45528263.04254899
2,1, 5,21, 0,14, 0.00,30.00,SummerDesignDay
10,37077087.23417446
2,1, 5,21, 0,14,30.00,60.00,SummerDesignDay
10,45305266.87982438
2,1, 5,21, 0,15, 0.00,30.00,SummerDesignDay
10,45392454.36414881
2,1, 5,21, 0,15,30.00,60.00,SummerDesignDay
10,37077087.23417446
2,1, 5,21, 0,16, 0.00,30.00,SummerDesignDay
10,45450457.43623605
2,1, 5,21, 0,16,30.00,60.00,SummerDesignDay
10,45555382.77376997
2,1, 5,21, 0,17, 0.00,30.00,SummerDesignDay
10,37077087.23417446
2,1, 5,21, 0,17,30.00,60.00,SummerDesignDay
10,45760259.87642718
2,1, 5,21, 0,18, 0.00,30.00,SummerDesignDay
10,45906672.00155024
2,1, 5,21, 0,18,30.00,60.00,SummerDesignDay
10,37077087.23417446
2,1, 5,21, 0,19, 0.00,30.00,SummerDesignDay
10,46231039.39580589
2,1, 5,21, 0,19,30.00,60.00,SummerDesignDay
10,46442560.68740906
2,1, 5,21, 0,20, 0.00,30.00,SummerDesignDay
10,37077087.23417446
2,1, 5,21, 0,20,30.00,60.00,SummerDesignDay
10,46727972.766229935
2,1, 5,21, 0,21, 0.00,30.00,SummerDesignDay
10,46854122.67713032
2,1, 5,21, 0,21,30.00,60.00,SummerDesignDay
10,37077087.23417446
2,1, 5,21, 0,22, 0.00,30.00,SummerDesignDay
10,47067441.19159256
2,1, 5,21, 0,22,30.00,60.00,SummerDesignDay
10,47209943.63866718
2,1, 5,21, 0,23, 0.00,30.00,SummerDesignDay
10,37077087.23417446
2,1, 5,21, 0,23,30.00,60.00,SummerDesignDay
10,47404716.272855245
2,1, 5,21, 0,24, 0.00,30.00,SummerDesignDay
10,46040456.93041839
2,1, 5,21, 0,24,30.00,60.00,SummerDesignDay
10,37077087.23417446
3,1, 5,21, 0,SummerDesignDay
12,2077520310.9333858,37077087.23417446, 2,30,47961411.99130063, 5,60
1,MUMBAI-SHIVAJI.INTL.AP ANN CLG .4% CONDNS WB=>MDB,  48.72,   2.38,   1.00,  90.00
2,1, 5,21, 0, 1, 0.00,30.00,SummerDesignDay
10,45705149.28712275
2,1, 5,21, 0, 1,30.00,60.00,SummerDesignDay
10,45761229.60315812
2,1, 5,21, 0, 2, 0.00,30.00,SummerDesignDay
10,37077087.23417446
2,1, 5,21, 0, 2,30.00,60.00,SummerDesignDay
10,47983301.32633112
2,1, 5,21, 0, 3, 0.00,30.00,SummerDesignDay
10,46401706.220244065
2,1, 5,21, 0, 3,30.00,60.00,SummerDesignDay
10,37077087.23417446
2,1, 5,21, 0, 4, 0.00,30.00,SummerDesignDay
10,48023284.86032003
2,1, 5,21, 0, 4,30.00,60.00,SummerDesignDay
10,46258198.27686806
2,1, 5,21, 0, 5, 0.00,30.00,SummerDesignDay
10,37077087.23417446
2,1, 5,21, 0, 5,30.00,60.00,SummerDesignDay
10,46571043.91157919
2,1, 5,21, 0, 6, 0.00,30.00,SummerDesignDay
10,46210128.895298995
2,1, 5,21, 0, 6,30.00,60.00,SummerDesignDay
10,37077087.23417446
2,1, 5,21, 0, 7, 0.00,30.00,SummerDesignDay
10,47974475.87938572
2,1, 5,21, 0, 7,30.00,60.00,SummerDesignDay
10,46121505.233387984
2,1, 5,21, 0, 8, 0.00,30.00,SummerDesignDay
10,37077087.23417446
2,1, 5,21, 0, 8,30.00,60.00,SummerDesignDay
10,47539512.31321436
2,1, 5,21, 0, 9, 0.00,30.00,SummerDesignDay
10,45868662.55376369
2,1, 5,21, 0, 9,30.00,60.00,SummerDesignDay
10,37077087.23417446
2,1, 5,21, 0,10, 0.00,30.00,SummerDesignDay
10,46814410.06174147
2,1, 5,21, 0,10,30.00,60.00,SummerDesignDay
10,46320399.39973675
2,1, 5,21, 0,11, 0.00,30.00,SummerDesignDay
10,37077087.23417446
2,1, 5,21, 0,11,30.00,60.00,SummerDesignDay
10,46194900.26822386
2,1, 5,21, 0,12, 0.00,30.00,SummerDesignDay
10,46040306.43419155
2,1, 5,21, 0,12,30.00,60.00,SummerDesignDay
10,37077087.23417446
2,1, 5,21, 0,13, 0.00,30.00,SummerDesignDay
10,45768967.536130205
2,1, 5,21, 0,13,30.00,60.00,SummerDesignDay
10,45689970.86485396
2,1, 5,21, 0,14, 0.00,30.00,SummerDesignDay
10,37077087.23417446
2,1, 5,21, 0,14,30.00,60.00,SummerDesignDay
10,45497404.144052885
2,1, 5,21, 0,15, 0.00,30.00,SummerDesignDay
10,45554601.61673959
2,1, 5,21, 0,15,30.00,60.00,SummerDesignDay
10,37077087.23417446
2,1, 5,21, 0,16, 0.00,30.00,SummerDesignDay
10,45616762.224886335
2,1, 5,21, 0,16,30.00,60.00,SummerDesignDay
10,45717002.927761525
2,1, 5,21, 0,17, 0.00,30.00,SummerDesignDay
10,37077087.23417446
2,1, 5,21, 0,17,30.00,60.00,SummerDesignDay
10,45925530.13423837
2,1, 5,21, 0,18, 0.00,30.00,SummerDesignDay
10,46067158.66119592
2,1, 5,21, 0,18,30.00,60.00,SummerDesignDay
10,37077087.23417446
2,1, 5,21, 0,19, 0.00,30.00,SummerDesignDay
10,46394606.17866184
2,1, 5,21, 0,19,30.00,60.00,SummerDesignDay
10,46601325.782085784
2,1, 5,21, 0,20, 0.00,30.00,SummerDesignDay
10,37077087.23417446
2,1, 5,21, 0,20,30.00,60.00,SummerDesignDay
10,46886791.18207681
2,1, 5,21, 0,21, 0.00,30.00,SummerDesignDay
10,47011571.80672565
2,1, 5,21, 0,21,30.00,60.00,SummerDesignDay
10,37077087.23417446
2,1, 5,21, 0,22, 0.00,30.00,SummerDesignDay
10,47227204.42623328
2,1, 5,21, 0,22,30.00,60.00,SummerDesignDay
10,46370543.59772618
2,1, 5,21, 0,23, 0.00,30.00,SummerDesignDay
10,37077087.23417446
2,1, 5,21, 0,23,30.00,60.00,SummerDesignDay
10,47562705.039865315
2,1, 5,21, 0,24, 0.00,30.00,SummerDesignDay
10,46167420.20028003
2,1, 5,21, 0,24,30.00,60.00,SummerDesignDay
10,37077087.23417446
3,1, 5,21, 0,SummerDesignDay
12,2079081176.5948732,37077087.23417446, 2,30,48023284.86032003, 4,30
1,MUMBAI-SHIVAJI.INTL.AP ANN CLG 1% CONDNS DB=>MWB,  48.72,   2.38,   1.00,  90.00
2,1, 5,21, 0, 1, 0.00,30.00,SummerDesignDay
10,45709168.88628474
2,1, 5,21, 0, 1,30.00,60.00,SummerDesignDay
10,45788754.38759293
2,1, 5,21, 0, 2, 0.00,30.00,SummerDesignDay
10,37077087.23417446
2,1, 5,21, 0, 2,30.00,60.00,SummerDesignDay
10,45870078.34467487
2,1, 5,21, 0, 3, 0.00,30.00,SummerDesignDay
10,45934348.40648305
2,1, 5,21, 0, 3,30.00,60.00,SummerDesignDay
10,37077087.23417446
2,1, 5,21, 0, 4, 0.00,30.00,SummerDesignDay
10,46018567.493295565
2,1, 5,21, 0, 4,30.00,60.00,SummerDesignDay
10,46053170.837525636
2,1, 5,21, 0, 5, 0.00,30.00,SummerDesignDay
10,37077087.23417446
2,1, 5,21, 0, 5,30.00,60.00,SummerDesignDay
10,46122785.519104086
2,1, 5,21, 0, 6, 0.00,30.00,SummerDesignDay
10,46079539.25224325
2,1, 5,21, 0, 6,30.00,60.00,SummerDesignDay
10,37077087.23417446
2,1, 5,21, 0, 7, 0.00,30.00,SummerDesignDay
10,45977430.34746259
2,1, 5,21, 0, 7,30.00,60.00,SummerDesignDay
10,45868219.366156176
2,1, 5,21, 0, 8, 0.00,30.00,SummerDesignDay
10,37077087.23417446
2,1, 5,21, 0, 8,30.00,60.00,SummerDesignDay
10,45360530.481330395
2,1, 5,21, 0, 9, 0.00,30.00,SummerDesignDay
10,45162089.31129457
2,1, 5,21, 0, 9,30.00,60.00,SummerDesignDay
10,37077087.23417446
2,1, 5,21, 0,10, 0.00,30.00,SummerDesignDay
10,44578587.90393555
2,1, 5,21, 0,10,30.00,60.00,SummerDesignDay
10,44446390.84267378
2,1, 5,21, 0,11, 0.00,30.00,SummerDesignDay
10,37077087.23417446
2,1, 5,21, 0,11,30.00,60.00,SummerDesignDay
10,43862849.966724895
2,1, 5,21, 0,12, 0.00,30.00,SummerDesignDay
10,43899786.47319338
2,1, 5,21, 0,12,30.00,60.00,SummerDesignDay
10,37077087.23417446
2,1, 5,21, 0,13, 0.00,30.00,SummerDesignDay
10,43496953.407528564
2,1, 5,21, 0,13,30.00,60.00,SummerDesignDay
10,43496467.9593864
2,1, 5,21, 0,14, 0.00,30.00,SummerDesignDay
10,37077087.23417446
2,1, 5,21, 0,14,30.00,60.00,SummerDesignDay
10,43758465.55922165
2,1, 5,21, 0,15, 0.00,30.00,SummerDesignDay
10,43931972.923380665
2,1, 5,21, 0,15,30.00,60.00,SummerDesignDay
10,37077087.23417446
2,1, 5,21, 0,16, 0.00,30.00,SummerDesignDay
10,43821961.64878952
2,1, 5,21, 0,16,30.00,60.00,SummerDesignDay
10,44224403.83555508
2,1, 5,21, 0,17, 0.00,30.00,SummerDesignDay
10,37077087.23417446
2,1, 5,21, 0,17,30.00,60.00,SummerDesignDay
10,44167644.731157675
2,1, 5,21, 0,18, 0.00,30.00,SummerDesignDay
10,44606703.67661486
2,1, 5,21, 0,18,30.00,60.00,SummerDesignDay
10,37077087.23417446
2,1, 5,21, 0,19, 0.00,30.00,SummerDesignDay
10,44728446.315933116
2,1, 5,21, 0,19,30.00,60.00,SummerDesignDay
10,44844712.97170983
2,1, 5,21, 0,20, 0.00,30.00,SummerDesignDay
10,37077087.23417446
2,1, 5,21, 0,20,30.00,60.00,SummerDesignDay
10,44781555.80436092
2,1, 5,21, 0,21, 0.00,30.00,SummerDesignDay
10,44893148.97025248
2,1, 5,21, 0,21,30.00,60.00,SummerDesignDay
10,37077087.23417446
2,1, 5,21, 0,22, 0.00,30.00,SummerDesignDay
10,45134474.69047126
2,1, 5,21, 0,22,30.00,60.00,SummerDesignDay
10,45255896.00056255
2,1, 5,21, 0,23, 0.00,30.00,SummerDesignDay
10,37077087.23417446
2,1, 5,21, 0,23,30.00,60.00,SummerDesignDay
10,45452134.78170203
2,1, 5,21, 0,24, 0.00,30.00,SummerDesignDay
10,45536319.15313706
2,1, 5,21, 0,24,30.00,60.00,SummerDesignDay
10,37077087.23417446
3,1, 5,21, 0,SummerDesignDay
12,2032096955.9965308,37077087.23417446, 2,30,46122785.519104086, 5,60
1,MUMBAI-SHIVAJI.INTL.AP ANN CLG 1% CONDNS DP=>MDB,  48.72,   2.38,   1.00,  90.00
2,1, 5,21, 0, 1, 0.00,30.00,SummerDesignDay
10,46225359.79186863
2,1, 5,21, 0, 1,30.00,60.00,SummerDesignDay
10,46280679.53518548
2,1, 5,21, 0, 2, 0.00,30.00,SummerDesignDay
10,37077087.23417446
2,1, 5,21, 0, 2,30.00,60.00,SummerDesignDay
10,46819081.16228272
2,1, 5,21, 0, 3, 0.00,30.00,SummerDesignDay
10,46615531.18407749
2,1, 5,21, 0, 3,30.00,60.00,SummerDesignDay
10,37077087.23417446
2,1, 5,21, 0, 4, 0.00,30.00,SummerDesignDay
10,46672073.7529132
2,1, 5,21, 0, 4,30.00,60.00,SummerDesignDay
10,46464513.01831548
2,1, 5,21, 0, 5, 0.00,30.00,SummerDesignDay
10,37077087.23417446
2,1, 5,21, 0, 5,30.00,60.00,SummerDesignDay
10,46738561.85941345
2,1, 5,21, 0, 6, 0.00,30.00,SummerDesignDay
10,46482848.984701574
2,1, 5,21, 0, 6,30.00,60.00,SummerDesignDay
10,37077087.23417446
2,1, 5,21, 0, 7, 0.00,30.00,SummerDesignDay
10,46634273.040084146
2,1, 5,21, 0, 7,30.00,60.00,SummerDesignDay
10,46335920.56036486
2,1, 5,21, 0, 8, 0.00,30.00,SummerDesignDay
10,37077087.23417446
2,1, 5,21, 0, 8,30.00,60.00,SummerDesignDay
10,47127318.60117556
2,1, 5,21, 0, 9, 0.00,30.00,SummerDesignDay
10,46084597.360961504
2,1, 5,21, 0, 9,30.00,60.00,SummerDesignDay
10,37077087.23417446
2,1, 5,21, 0,10, 0.00,30.00,SummerDesignDay
10,47534195.139817305
2,1, 5,21, 0,10,30.00,60.00,SummerDesignDay
10,45898994.75291874
2,1, 5,21, 0,11, 0.00,30.00,SummerDesignDay
10,37077087.23417446
2,1, 5,21, 0,11,30.00,60.00,SummerDesignDay
10,46917428.768043056
2,1, 5,21, 0,12, 0.00,30.00,SummerDesignDay
10,46260082.14287546
2,1, 5,21, 0,12,30.00,60.00,SummerDesignDay
10,37077087.23417446
2,1, 5,21, 0,13, 0.00,30.00,SummerDesignDay
10,46568882.72478101
2,1, 5,21, 0,13,30.00,60.00,SummerDesignDay
10,46439755.547258675
2,1, 5,21, 0,14, 0.00,30.00,SummerDesignDay
10,37077087.23417446
2,1, 5,21, 0,14,30.00,60.00,SummerDesignDay
10,46334987.0792817
2,1, 5,21, 0,15, 0.00,30.00,SummerDesignDay
10,46306357.51888284
2,1, 5,21, 0,15,30.00,60.00,SummerDesignDay
10,37077087.23417446
2,1, 5,21, 0,16, 0.00,30.00,SummerDesignDay
10,46387872.67178913
2,1, 5,21, 0,16,30.00,60.00,SummerDesignDay
10,46466394.33327735
2,1, 5,21, 0,17, 0.00,30.00,SummerDesignDay
10,37077087.23417446
2,1, 5,21, 0,17,30.00,60.00,SummerDesignDay
10,46665703.730164826
2,1, 5,21, 0,18, 0.00,30.00,SummerDesignDay
10,46811464.322361365
2,1, 5,21, 0,18,30.00,60.00,SummerDesignDay
10,37077087.23417446
2,1, 5,21, 0,19, 0.00,30.00,SummerDesignDay
10,47127163.29104021
2,1, 5,21, 0,19,30.00,60.00,SummerDesignDay
10,46345840.09839723
2,1, 5,21, 0,20, 0.00,30.00,SummerDesignDay
10,37077087.23417446
2,1, 5,21, 0,20,30.00,60.00,SummerDesignDay
10,47613192.76831729
2,1, 5,21, 0,21, 0.00,30.00,SummerDesignDay
10,46176302.719534926
2,1, 5,21, 0,21,30.00,60.00,SummerDesignDay
10,37077087.23417446
2,1, 5,21, 0,22, 0.00,30.00,SummerDesignDay
10,47963455.86664982
2,1, 5,21, 0,22,30.00,60.00,SummerDesignDay
10,46452219.90206458
2,1, 5,21, 0,23, 0.00,30.00,SummerDesignDay
10,37077087.23417446
2,1, 5,21, 0,23,30.00,60.00,SummerDesignDay
10,48292868.29283962
2,1, 5,21, 0,24, 0.00,30.00,SummerDesignDay
10,46423520.13118383
2,1, 5,21, 0,24,30.00,60.00,SummerDesignDay
10,37077087.23417446
3,1, 5,21, 0,SummerDesignDay
12,2086700836.3996148,37077087.23417446, 2,30,48292868.29283962,23,60
1,MUMBAI-SHIVAJI.INTL.AP ANN CLG 1% CONDNS ENTH=>MDB,  48.72,   2.38,   1.00,  90.00
2,1, 5,21, 0, 1, 0.00,30.00,SummerDesignDay
10,45740861.60969661
2,1, 5,21, 0, 1,30.00,60.00,SummerDesignDay
10,45798569.89634524
2,1, 5,21, 0, 2, 0.00,30.00,SummerDesignDay
10,37077087.23417446
2,1, 5,21, 0, 2,30.00,60.00,SummerDesignDay
10,48033295.04461411
2,1, 5,21, 0, 3, 0.00,30.00,SummerDesignDay
10,46442122.592838615
2,1, 5,21, 0, 3,30.00,60.00,SummerDesignDay
10,37077087.23417446
2,1, 5,21, 0, 4, 0.00,30.00,SummerDesignDay
10,46831977.60974075
2,1, 5,21, 0, 4,30.00,60.00,SummerDesignDay
10,46229404.41660336
2,1, 5,21, 0, 5, 0.00,30.00,SummerDesignDay
10,37077087.23417446
2,1, 5,21, 0, 5,30.00,60.00,SummerDesignDay
10,46537829.90929892
2,1, 5,21, 0, 6, 0.00,30.00,SummerDesignDay
10,46248670.1282206
2,1, 5,21, 0, 6,30.00,60.00,SummerDesignDay
10,37077087.23417446
2,1, 5,21, 0, 7, 0.00,30.00,SummerDesignDay
10,48023965.654752724
2,1, 5,21, 0, 7,30.00,60.00,SummerDesignDay
10,46160611.18057008
2,1, 5,21, 0, 8, 0.00,30.00,SummerDesignDay
10,37077087.23417446
2,1, 5,21, 0, 8,30.00,60.00,SummerDesignDay
10,47586656.78064127
2,1, 5,21, 0, 9, 0.00,30.00,SummerDesignDay
10,45907333.91801705
2,1, 5,21, 0, 9,30.00,60.00,SummerDesignDay
10,37077087.23417446
2,1, 5,21, 0,10, 0.00,30.00,SummerDesignDay
10,46862796.703422725
2,1, 5,21, 0,10,30.00,60.00,SummerDesignDay
10,46367182.971290946
2,1, 5,21, 0,11, 0.00,30.00,SummerDesignDay
10,37077087.23417446
2,1, 5,21, 0,11,30.00,60.00,SummerDesignDay
10,46245066.64449361
2,1, 5,21, 0,12, 0.00,30.00,SummerDesignDay
10,46089826.09962137
2,1, 5,21, 0,12,30.00,60.00,SummerDesignDay
10,37077087.23417446
2,1, 5,21, 0,13, 0.00,30.00,SummerDesignDay
10,45802880.739769064
2,1, 5,21, 0,13,30.00,60.00,SummerDesignDay
10,45740100.645426534
2,1, 5,21, 0,14, 0.00,30.00,SummerDesignDay
10,37077087.23417446
2,1, 5,21, 0,14,30.00,60.00,SummerDesignDay
10,45548787.02878705
2,1, 5,21, 0,15, 0.00,30.00,SummerDesignDay
10,45604967.94929074
2,1, 5,21, 0,15,30.00,60.00,SummerDesignDay
10,37077087.23417446
2,1, 5,21, 0,16, 0.00,30.00,SummerDesignDay
10,45663873.824947
2,1, 5,21, 0,16,30.00,60.00,SummerDesignDay
10,45767085.52239542
2,1, 5,21, 0,17, 0.00,30.00,SummerDesignDay
10,37077087.23417446
2,1, 5,21, 0,17,30.00,60.00,SummerDesignDay
10,45976725.397936255
2,1, 5,21, 0,18, 0.00,30.00,SummerDesignDay
10,46116631.62074781
2,1, 5,21, 0,18,30.00,60.00,SummerDesignDay
10,37077087.23417446
2,1, 5,21, 0,19, 0.00,30.00,SummerDesignDay
10,46444921.14607654
2,1, 5,21, 0,19,30.00,60.00,SummerDesignDay
10,46649874.45972744
2,1, 5,21, 0,20, 0.00,30.00,SummerDesignDay
10,37077087.23417446
2,1, 5,21, 0,20,30.00,60.00,SummerDesignDay
10,46936154.39242181
2,1, 5,21, 0,21, 0.00,30.00,SummerDesignDay
10,47059415.38498516
2,1, 5,21, 0,21,30.00,60.00,SummerDesignDay
10,37077087.23417446
2,1, 5,21, 0,22, 0.00,30.00,SummerDesignDay
10,47275729.772207685
2,1, 5,21, 0,22,30.00,60.00,SummerDesignDay
10,45910781.0566965
2,1, 5,21, 0,23, 0.00,30.00,SummerDesignDay
10,37077087.23417446
2,1, 5,21, 0,23,30.00,60.00,SummerDesignDay
10,47610434.926465906
2,1, 5,21, 0,24, 0.00,30.00,SummerDesignDay
10,46205636.36271185
2,1, 5,21, 0,24,30.00,60.00,SummerDesignDay
10,37077087.23417446
3,1, 5,21, 0,SummerDesignDay
12,2078653567.1375525,37077087.23417446, 2,30,48033295.04461411, 2,60
1,MUMBAI-SHIVAJI.INTL.AP ANN CLG 1% CONDNS WB=>MDB,  48.72,   2.38,   1.00,  90.00
2,1, 5,21, 0, 1, 0.00,30.00,SummerDesignDay
10,45854510.848940104
2,1, 5,21, 0, 1,30.00,60.00,SummerDesignDay
10,45910368.9540903
2,1, 5,21, 0, 2, 0.00,30.00,SummerDesignDay
10,37077087.23417446
2,1, 5,21, 0, 2,30.00,60.00,SummerDesignDay
10,48182893.33767126
2,1, 5,21, 0, 3, 0.00,30.00,SummerDesignDay
10,46287134.66491828
2,1, 5,21, 0, 3,30.00,60.00,SummerDesignDay
10,37077087.23417446
2,1, 5,21, 0, 4, 0.00,30.00,SummerDesignDay
10,46587328.99743081
2,1, 5,21, 0, 4,30.00,60.00,SummerDesignDay
10,46344852.31194726
2,1, 5,21, 0, 5, 0.00,30.00,SummerDesignDay
10,37077087.23417446
2,1, 5,21, 0, 5,30.00,60.00,SummerDesignDay
10,46582970.231814116
2,1, 5,21, 0, 6, 0.00,30.00,SummerDesignDay
10,46364059.619435675
2,1, 5,21, 0, 6,30.00,60.00,SummerDesignDay
10,37077087.23417446
2,1, 5,21, 0, 7, 0.00,30.00,SummerDesignDay
10,46621799.86038393
2,1, 5,21, 0, 7,30.00,60.00,SummerDesignDay
10,46240626.91207626
2,1, 5,21, 0, 8, 0.00,30.00,SummerDesignDay
10,37077087.23417446
2,1, 5,21, 0, 8,30.00,60.00,SummerDesignDay
10,47724920.98781976
2,1, 5,21, 0, 9, 0.00,30.00,SummerDesignDay
10,46034171.91300596
2,1, 5,21, 0, 9,30.00,60.00,SummerDesignDay
10,37077087.23417446
2,1, 5,21, 0,10, 0.00,30.00,SummerDesignDay
10,47020289.654977605
2,1, 5,21, 0,10,30.00,60.00,SummerDesignDay
10,46256370.23789758
2,1, 5,21, 0,11, 0.00,30.00,SummerDesignDay
10,37077087.23417446
2,1, 5,21, 0,11,30.00,60.00,SummerDesignDay
10,46395367.61569751
2,1, 5,21, 0,12, 0.00,30.00,SummerDesignDay
10,46249216.742119156
2,1, 5,21, 0,12,30.00,60.00,SummerDesignDay
10,37077087.23417446
2,1, 5,21, 0,13, 0.00,30.00,SummerDesignDay
10,46017831.695997335
2,1, 5,21, 0,13,30.00,60.00,SummerDesignDay
10,45900637.21506919
2,1, 5,21, 0,14, 0.00,30.00,SummerDesignDay
10,37077087.23417446
2,1, 5,21, 0,14,30.00,60.00,SummerDesignDay
10,45748430.725367606
2,1, 5,21, 0,15, 0.00,30.00,SummerDesignDay
10,45765948.3828488
2,1, 5,21, 0,15,30.00,60.00,SummerDesignDay
10,37077087.23417446
2,1, 5,21, 0,16, 0.00,30.00,SummerDesignDay
10,45845132.853931665
2,1, 5,21, 0,16,30.00,60.00,SummerDesignDay
10,45927533.575479515
2,1, 5,21, 0,17, 0.00,30.00,SummerDesignDay
10,37077087.23417446
2,1, 5,21, 0,17,30.00,60.00,SummerDesignDay
10,46136746.05108029
2,1, 5,21, 0,18, 0.00,30.00,SummerDesignDay
10,46275934.610602014
2,1, 5,21, 0,18,30.00,60.00,SummerDesignDay
10,37077087.23417446
2,1, 5,21, 0,19, 0.00,30.00,SummerDesignDay
10,46603560.16798109
2,1, 5,21, 0,19,30.00,60.00,SummerDesignDay
10,46807438.538098484
2,1, 5,21, 0,20, 0.00,30.00,SummerDesignDay
10,37077087.23417446
2,1, 5,21, 0,20,30.00,60.00,SummerDesignDay
10,47075164.310017236
2,1, 5,21, 0,21, 0.00,30.00,SummerDesignDay
10,47215650.3946378
2,1, 5,21, 0,21,30.00,60.00,SummerDesignDay
10,37077087.23417446
2,1, 5,21, 0,22, 0.00,30.00,SummerDesignDay
10,47434197.58361338
2,1, 5,21, 0,22,30.00,60.00,SummerDesignDay
10,46035998.92882488
2,1, 5,21, 0,23, 0.00,30.00,SummerDesignDay
10,37077087.23417446
2,1, 5,21, 0,23,30.00,60.00,SummerDesignDay
10,47770829.56622221
2,1, 5,21, 0,24, 0.00,30.00,SummerDesignDay
10,46331688.88602503
2,1, 5,21, 0,24,30.00,60.00,SummerDesignDay
10,37077087.23417446
3,1, 5,21, 0,SummerDesignDay
12,2080783002.122814,37077087.23417446, 2,30,48182893.33767126, 2,60
1,MUMBAI-SHIVAJI.INTL.AP ANN CLG 2% CONDNS DB=>MWB,  48.72,   2.38,   1.00,  90.00
2,1, 5,21, 0, 1, 0.00,30.00,SummerDesignDay
10,46194340.11279853
2,1, 5,21, 0, 1,30.00,60.00,SummerDesignDay
10,46273332.31589092
2,1, 5,21, 0, 2, 0.00,30.00,SummerDesignDay
10,37077087.23417446
2,1, 5,21, 0, 2,30.00,60.00,SummerDesignDay
10,46373783.856384516
2,1, 5,21, 0, 3, 0.00,30.00,SummerDesignDay
10,46417841.67833203
2,1, 5,21, 0, 3,30.00,60.00,SummerDesignDay
10,37077087.23417446
2,1, 5,21, 0, 4, 0.00,30.00,SummerDesignDay
10,46517963.78484282
2,1, 5,21, 0, 4,30.00,60.00,SummerDesignDay
10,46535779.844641745
2,1, 5,21, 0, 5, 0.00,30.00,SummerDesignDay
10,37077087.23417446
2,1, 5,21, 0, 5,30.00,60.00,SummerDesignDay
10,46592613.24376763
2,1, 5,21, 0, 6, 0.00,30.00,SummerDesignDay
10,46561952.122055314
2,1, 5,21, 0, 6,30.00,60.00,SummerDesignDay
10,37077087.23417446
2,1, 5,21, 0, 7, 0.00,30.00,SummerDesignDay
10,46459776.00042197
2,1, 5,21, 0, 7,30.00,60.00,SummerDesignDay
10,46352205.12731594
2,1, 5,21, 0, 8, 0.00,30.00,SummerDesignDay
10,37077087.23417446
2,1, 5,21, 0, 8,30.00,60.00,SummerDesignDay
10,45915949.14880391
2,1, 5,21, 0, 9, 0.00,30.00,SummerDesignDay
10,45651348.59214659
2,1, 5,21, 0, 9,30.00,60.00,SummerDesignDay
10,37077087.23417446
2,1, 5,21, 0,10, 0.00,30.00,SummerDesignDay
10,45067586.590971336
2,1, 5,21, 0,10,30.00,60.00,SummerDesignDay
10,44941022.40134555
2,1, 5,21, 0,11, 0.00,30.00,SummerDesignDay
10,37077087.23417446
2,1, 5,21, 0,11,30.00,60.00,SummerDesignDay
10,44421229.99797157
2,1, 5,21, 0,12, 0.00,30.00,SummerDesignDay
10,44398539.56770847
2,1, 5,21, 0,12,30.00,60.00,SummerDesignDay
10,37077087.23417446
2,1, 5,21, 0,13, 0.00,30.00,SummerDesignDay
10,44026445.93825934
2,1, 5,21, 0,13,30.00,60.00,SummerDesignDay
10,44042934.069996566
2,1, 5,21, 0,14, 0.00,30.00,SummerDesignDay
10,37077087.23417446
2,1, 5,21, 0,14,30.00,60.00,SummerDesignDay
10,43809633.83561174
2,1, 5,21, 0,15, 0.00,30.00,SummerDesignDay
10,43831641.787476875
2,1, 5,21, 0,15,30.00,60.00,SummerDesignDay
10,37077087.23417446
2,1, 5,21, 0,16, 0.00,30.00,SummerDesignDay
10,43935580.11541817
2,1, 5,21, 0,16,30.00,60.00,SummerDesignDay
10,44182222.85271535
2,1, 5,21, 0,17, 0.00,30.00,SummerDesignDay
10,37077087.23417446
2,1, 5,21, 0,17,30.00,60.00,SummerDesignDay
10,44268399.87738455
2,1, 5,21, 0,18, 0.00,30.00,SummerDesignDay
10,44487327.527971916
2,1, 5,21, 0,18,30.00,60.00,SummerDesignDay
10,37077087.23417446
2,1, 5,21, 0,19, 0.00,30.00,SummerDesignDay
10,44763256.47415815
2,1, 5,21, 0,19,30.00,60.00,SummerDesignDay
10,44968001.40396798
2,1, 5,21, 0,20, 0.00,30.00,SummerDesignDay
10,37077087.23417446
2,1, 5,21, 0,20,30.00,60.00,SummerDesignDay
10,45268522.45996948
2,1, 5,21, 0,21, 0.00,30.00,SummerDesignDay
10,45384423.78919905